----- GAMESS execution script -----
This job is running on host compute-0-0 at Wed Sep 24 18:54:27 GMT 2003
Available scratch disk space (Kbyte units) at beginning of the job is
Initiating 2 compute processes for job h20_rhf
Executable gamess.00.x will be run from directory /home/jpg/gamess
Working scratch directory on each host will be /home/uxgamesp/.portals/abowen/gamess/h2o_rhf/h20_rhf
Running gamess.00.x on compute-0-0 as compute process 0
Running gamess.00.x on compute-0-0 as compute process 1
Running gamess.00.x on compute-0-0 as data server 2
Running gamess.00.x on compute-0-0 as data server 3
Process initiation completed.
 
          ******************************************************
          *         GAMESS VERSION = 14 JAN 2003 (R2)          *
          *             FROM IOWA STATE UNIVERSITY             *
          * M.W.SCHMIDT, K.K.BALDRIDGE, J.A.BOATZ, S.T.ELBERT, *
          *   M.S.GORDON, J.H.JENSEN, S.KOSEKI, N.MATSUNAGA,   *
          *          K.A.NGUYEN, S.J.SU, T.L.WINDUS,           *
          *       TOGETHER WITH M.DUPUIS, J.A.MONTGOMERY       *
          *         J.COMPUT.CHEM.  14, 1347-1363(1993)        *
          ******************* PC-UNIX VERSION ******************
 
     SINCE 1993, STUDENTS AND POSTDOCS WORKING AT IOWA STATE UNIVERSITY
     AND ALSO IN THEIR VARIOUS JOBS AFTER LEAVING ISU HAVE MADE IMPORTANT
     CONTRIBUTIONS TO THE CODE:
     CHRISTINE AIKENS, ROB BELL, PRADIPTA BANDYOPADHYAY, BRETT BODE,
     GALINA CHABAN, WEI CHEN, CHEOL CHOI, PAUL DAY, DMITRI FEDOROV,
     GRAHAM FLETCHER, MARK FREITAG, KURT GLAESEMANN, GRANT MERRILL,
     MIKE PAK, JIM SHOEMAKER, TETSUYA TAKETSUGU, SIMON WEBB.
 
     ADDITIONAL CODE HAS BEEN PROVIDED BY COLLABORATORS IN OTHER GROUPS:
     IOWA STATE UNIVERSITY: JOE IVANIC, KLAUS RUEDENBERG
     UNIVERSITY OF TOKYO: KIMIHIKO HIRAO, HARUYUKI NAKANO, TAKAHITO
     NAKAJIMA, TAKAO TSUNEDA, MUNEAKI KAMIYA, SUSUMU YANAGISAWA
     ODENSE UNIVERSITY: FRANK JENSEN
     UNIVERSITY OF IOWA: VISVALDAS KAIRYS, HUI LI
     NATIONAL INST. OF STANDARDS AND TECHNOLOGY: WALT STEVENS, DAVID GARMER
     UNIVERSITY OF PISA: BENEDETTA MENNUCCI, JACOPO TOMASI
     UNIVERSITY OF MEMPHIS: HENRY KURTZ, PRAKASHAN KORAMBATH
     UNIVERSITY OF ALBERTA: MARIUSZ KLOBUKOWSKI
     UNIVERSITY OF NEW ENGLAND: MARK SPACKMAN
     MIE UNIVERSITY: HIROAKI UMEDA
     MICHIGAN STATE UNIVERSITY: KAROL KOWALSKI, PIOTR PIECUCH
     UNIVERSITY OF SILESIA: MONIKA MUSIAL, STANISLAW KUCHARSKI
 
 PARALLEL VERSION RUNNING WITH   2 PROCESSORS
 
 EXECUTION OF GAMESS BEGUN Wed Sep 24 18:54:27 2003
 
            ECHO OF THE FIRST FEW INPUT CARDS -
 INPUT CARD> $CONTRL SCFTYP=RHF RUNTYP=ENERGY $END
 INPUT CARD> $BASIS GBASIS=STO NGAUSS=3 $END                                               
 INPUT CARD> $DATA                                                                          
 INPUT CARD>STO-3G TEST CASE FOR WATER                                                     
 INPUT CARD>CNV 2                                                                          
 INPUT CARD>                                                                                
 INPUT CARD>O 8.0 0.0 0.0 0.0                                                              
 INPUT CARD>H 1.0 -0.758 0.0 0.545                                                         
 INPUT CARD> $END                                                                           
 
 ..... DONE SETTING UP THE RUN .....
 
   1000000 WORDS OF MEMORY AVAILABLE
 
     BASIS OPTIONS
     -------------
     GBASIS=STO          IGAUSS=       3      POLAR=NONE   
     NDFUNC=       0     DIFFSP=       F
     NPFUNC=       0      DIFFS=       F
 
 
     RUN TITLE
     ---------
 STO-3G TEST CASE FOR WATER                                                     
 
 THE POINT GROUP OF THE MOLECULE IS CNV    
 THE ORDER OF THE PRINCIPAL AXIS IS     2
 
 ATOM      ATOMIC                      COORDINATES (BOHR)
           CHARGE         X                   Y                   Z
 O           8.0     0.0000000000        0.0000000000        0.0000000000
 H           1.0     1.4324122987        0.0000000000        1.0299006633
 H           1.0    -1.4324122987        0.0000000000        1.0299006633
 
          INTERNUCLEAR DISTANCES (ANGS.)
          ------------------------------
 
                    O              H              H        
 
  1  O               0.0000000      0.9335893 *    0.9335893 * 
  2  H               0.9335893 *    0.0000000      1.5160000 * 
  3  H               0.9335893 *    1.5160000 *    0.0000000   
 
  * ... LESS THAN  3.000
 
 
     ATOMIC BASIS SET
     ----------------
 THE CONTRACTED PRIMITIVE FUNCTIONS HAVE BEEN UNNORMALIZED
 THE CONTRACTED BASIS FUNCTIONS ARE NOW NORMALIZED TO UNITY
 
 SHELL TYPE PRIMITIVE    EXPONENT          CONTRACTION COEFFICIENTS
 
 O        
 
   1   S    1           130.7093214      0.154328967295
   1   S    2            23.8088661      0.535328142282
   1   S    3             6.4436083      0.444634542185
 
   2   L    4             5.0331513     -0.099967229187      0.155916274999
   2   L    5             1.1695961      0.399512826089      0.607683718598
   2   L    6             0.3803890      0.700115468880      0.391957393099
 
 H        
 
   4   S    7             3.4252509      0.154328967295
   4   S    8             0.6239137      0.535328142282
   4   S    9             0.1688554      0.444634542185
 
 
 TOTAL NUMBER OF BASIS SET SHELLS             =    4
 NUMBER OF CARTESIAN GAUSSIAN BASIS FUNCTIONS =    7
 NUMBER OF ELECTRONS                          =   10
 CHARGE OF MOLECULE                           =    0
 SPIN MULTIPLICITY                            =    1
 NUMBER OF OCCUPIED ORBITALS (ALPHA)          =    5
 NUMBER OF OCCUPIED ORBITALS (BETA )          =    5
 TOTAL NUMBER OF ATOMS                        =    3
 THE NUCLEAR REPULSION ENERGY IS        9.4181841916
 
 
     $CONTRL OPTIONS
     ---------------
 SCFTYP=RHF          RUNTYP=ENERGY       EXETYP=RUN    
 MPLEVL=       0     CITYP =NONE         CCTYP =NONE   
 MULT  =       1     ICHARG=       0     NZVAR =       0     COORD =UNIQUE 
 ECP   =NONE         RELWFN=NONE         LOCAL =NONE   
 ISPHER=      -1     NOSYM =       0     MAXIT =      30     UNITS =ANGS   
 PLTORB=       F     MOLPLT=       F     AIMPAC=       F     FRIEND=       
 NPRINT=       7     IREST =       0     GEOM  =INPUT   
 NORMF =       0     NORMP =       0     ITOL  =      20     ICUT  =       9
 INTTYP=POPLE        QMTTOL= 1.0E-06
 
     $SYSTEM OPTIONS
     ---------------
  REPLICATED MEMORY=     1000000 WORDS (ON EVERY NODE).
 DISTRIBUTED MEMDDI=           0 MILLION WORDS IN AGGREGATE,
 MEMDDI DISTRIBUTED OVER   2 PROCESSORS IS           0 WORDS/PROCESSOR.
 TOTAL MEMORY REQUESTED ON EACH PROCESSOR=     1000000 WORDS.
 TIMLIM=     36000.0 SECONDS.
 COREFL=F     KDIAG= 0
 
 
          ----------------
          PROPERTIES INPUT
          ----------------
 
     MOMENTS            FIELD           POTENTIAL          DENSITY
 IEMOM =       1   IEFLD =       0   IEPOT =       0   IEDEN =       0
 WHERE =COMASS     WHERE =NUCLEI     WHERE =NUCLEI     WHERE =NUCLEI 
 OUTPUT=BOTH       OUTPUT=BOTH       OUTPUT=BOTH       OUTPUT=BOTH   
 IEMINT=       0   IEFINT=       0                     IEDINT=       0
                                                       MORB  =       0
          EXTRAPOLATION IN EFFECT
 
     -------------------------------
     INTEGRAL TRANSFORMATION OPTIONS
     -------------------------------
     NWORD  =       0     CUTOFF = 1.0E-09
     MPTRAN =       0     DIRTRF =       F
     AOINTS =DUP    
 
          ----------------------
          INTEGRAL INPUT OPTIONS
          ----------------------
 NOPK  =       1 NORDER=       0 SCHWRZ=       F
 
     ------------------------------------------
     THE POINT GROUP IS CNV, NAXIS= 2, ORDER= 4
     ------------------------------------------
 
     DIMENSIONS OF THE SYMMETRY SUBSPACES ARE
 A1  =    4     A2  =    0     B1  =    2     B2  =    1
 
 
 ..... DONE SETTING UP THE RUN .....
 ON NODE 0, STEP CPU TIME =     0.02 TOTAL CPU TIME =        0.0 (    0.0 MIN)
 TOTAL WALL CLOCK TIME=        0.1 SECONDS, CPU UTILIZATION IS  33.33%
 
 
          ********************
          1 ELECTRON INTEGRALS
          ********************
 ...... END OF ONE-ELECTRON INTEGRALS ......
 ON NODE 0, STEP CPU TIME =     0.00 TOTAL CPU TIME =        0.0 (    0.0 MIN)
 TOTAL WALL CLOCK TIME=        0.1 SECONDS, CPU UTILIZATION IS  28.57%
  
          -------------
          GUESS OPTIONS
          -------------
          GUESS =HUCKEL            NORB  =       0          NORDER=       0
          MIX   =       F          PRTMO =       F          PUNMO =       F
          TOLZ  = 1.0E-08          TOLE  = 1.0E-05
          SYMDEN=       F          PURIFY=       F
 
 INITIAL GUESS ORBITALS GENERATED BY HUCKEL   ROUTINE.
 HUCKEL GUESS REQUIRES      2569 WORDS.
 
 SYMMETRIES FOR INITIAL GUESS ORBITALS FOLLOW.   BOTH SET(S).
     5 ORBITALS ARE OCCUPIED (    1 CORE ORBITALS).
     2=A1       3=B1       4=A1       5=B2       6=B1       7=A1 
 ...... END OF INITIAL ORBITAL SELECTION ......
 ON NODE 0, STEP CPU TIME =     0.00 TOTAL CPU TIME =        0.0 (    0.0 MIN)
 TOTAL WALL CLOCK TIME=        0.1 SECONDS, CPU UTILIZATION IS  18.18%
 
          --------------------
          2 ELECTRON INTEGRALS
          --------------------
 
 THE -PK- OPTION IS OFF, THE INTEGRALS ARE NOT IN SUPERMATRIX FORM.
 STORING   15000 INTEGRALS/RECORD ON DISK, USING 12 BYTES/INTEGRAL.
 TWO ELECTRON INTEGRAL EVALUATION REQUIRES   59666 WORDS OF MEMORY.
 II,JST,KST,LST =  1  1  1  1 NREC =         1 INTLOC =    1
 II,JST,KST,LST =  2  1  1  1 NREC =         1 INTLOC =    2
 II,JST,KST,LST =  3  1  1  1 NREC =         1 INTLOC =   26
 II,JST,KST,LST =  4  1  1  1 NREC =         1 INTLOC =   26
 TOTAL NUMBER OF NONZERO TWO-ELECTRON INTEGRALS =                 141
          2 INTEGRAL RECORDS WERE STORED ON DISK FILE  8.
  ...... END OF TWO-ELECTRON INTEGRALS .....
 ON NODE 0, STEP CPU TIME =     0.00 TOTAL CPU TIME =        0.0 (    0.0 MIN)
 TOTAL WALL CLOCK TIME=        0.2 SECONDS, CPU UTILIZATION IS  13.33% 
 
          --------------------------
                 RHF SCF CALCULATION
          --------------------------
 
     NUCLEAR ENERGY =         9.4181841916
     MAXIT =   30     NPUNCH=    2
     EXTRAP=T  DAMP=F  SHIFT=F  RSTRCT=F  DIIS=F  DEM=F  SOSCF=F
     DENSITY MATRIX CONV=  1.00E-05
     MEMORY REQUIRED FOR RHF STEP=     30441 WORDS.
 
 ITER EX DEM    TOTAL ENERGY       E CHANGE  DENSITY CHANGE    DIIS ERROR
   1  0  0      -74.796397381   -74.796397381   0.601371055   0.000000000
   2  1  0      -74.943496567    -0.147099186   0.181140937   0.000000000
   3  2  0      -74.954855131    -0.011358563   0.061435141   0.000000000
   4  3  0      -74.956097038    -0.001241907   0.021320108   0.000000000
   5  0  0      -74.956270875    -0.000173837   0.015304469   0.000000000
   6  1  0      -74.956304372    -0.000033497   0.001429265   0.000000000
   7  2  0      -74.956305221    -0.000000849   0.000536812   0.000000000
   8  3  0      -74.956305366    -0.000000145   0.000212038   0.000000000
   9  4  0      -74.956305391    -0.000000026   0.000086407   0.000000000
  10  5  0      -74.956305396    -0.000000005   0.000035923   0.000000000
  11  6  0      -74.956305397    -0.000000001   0.000015116   0.000000000
  12  7  0      -74.956305397     0.000000000   0.000006406   0.000000000
 
          -----------------
          DENSITY CONVERGED
          -----------------
     TIME TO FORM FOCK OPERATORS=       0.0 SECONDS (       0.0 SEC/ITER)
     TIME TO SOLVE SCF EQUATIONS=       0.0 SECONDS (       0.0 SEC/ITER)
 
 FINAL RHF ENERGY IS      -74.9563053972 AFTER  12 ITERATIONS
 
 
          ------------
          EIGENVECTORS
          ------------
 
                      1          2          3          4          5
                  -20.2331    -1.2757    -0.6371    -0.4460    -0.3898
                     A1         A1         B1         A1         B2 
    1  O   1  S   0.994061  -0.232253   0.000000   0.101524   0.000000
    2  O   1  S   0.027137   0.825784   0.000000  -0.530672   0.000000
    3  O   1  X   0.000000   0.000000   0.602380   0.000000   0.000000
    4  O   1  Y   0.000000   0.000000   0.000000   0.000000   1.000000
    5  O   1  Z   0.004436   0.133207   0.000000   0.794888   0.000000
    6  H   2  S  -0.006270   0.160983   0.440702   0.263348   0.000000
    7  H   3  S  -0.006270   0.160983  -0.440702   0.263348   0.000000
 
                      6          7
                    0.6219     0.7834
                     A1         B1 
    1  O   1  S  -0.137550   0.000000
    2  O   1  S   0.936621   0.000000
    3  O   1  X   0.000000   1.016544
    4  O   1  Y   0.000000   0.000000
    5  O   1  Z   0.720248   0.000000
    6  H   2  S  -0.819015  -0.858947
    7  H   3  S  -0.819015   0.858947
 ...... END OF RHF CALCULATION ......
 ON NODE 0, STEP CPU TIME =     0.01 TOTAL CPU TIME =        0.0 (    0.0 MIN)
 TOTAL WALL CLOCK TIME=        0.2 SECONDS, CPU UTILIZATION IS  14.29%

 
          -----------------
          ENERGY COMPONENTS
          -----------------
 
         WAVEFUNCTION NORMALIZATION =       1.0000000000
 
                ONE ELECTRON ENERGY =    -122.7856928637
                TWO ELECTRON ENERGY =      38.4112032749
           NUCLEAR REPULSION ENERGY =       9.4181841916
                                      ------------------
                       TOTAL ENERGY =     -74.9563053972
 
 ELECTRON-ELECTRON POTENTIAL ENERGY =      38.4112032749
  NUCLEUS-ELECTRON POTENTIAL ENERGY =    -197.4330257640
   NUCLEUS-NUCLEUS POTENTIAL ENERGY =       9.4181841916
                                      ------------------
             TOTAL POTENTIAL ENERGY =    -149.6036382975
               TOTAL KINETIC ENERGY =      74.6473329003
                 VIRIAL RATIO (V/T) =       2.0041390963
 
  ...... PI ENERGY ANALYSIS ......
 
 ENERGY ANALYSIS:
            FOCK ENERGY=    -45.9632881957
          BARE H ENERGY=   -122.7856928637
     ELECTRONIC ENERGY =    -84.3744905297
         KINETIC ENERGY=     74.6473329003
          N-N REPULSION=      9.4181841916
           TOTAL ENERGY=    -74.9563063380
        SIGMA PART(1+2)=    -76.5065014675
               (K,V1,2)=     69.5898704483   -177.4191175547     31.3227456389
           PI PART(1+2)=     -7.8679890622
               (K,V1,2)=      5.0574624520    -20.0139082094      7.0884566951
  SIGMA SKELETON, ERROR=    -67.0883172758      0.0000000000
             MIXED PART= 0.00000E+00 0.00000E+00 0.00000E+00 0.00000E+00
 ...... END OF PI ENERGY ANALYSIS ......
 
  
          ---------------------------------------
          MULLIKEN AND LOWDIN POPULATION ANALYSES
          ---------------------------------------
 
     MULLIKEN ATOMIC POPULATION IN EACH MOLECULAR ORBITAL
 
                      1          2          3          4          5
 
                  2.000000   2.000000   2.000000   2.000000   2.000000
 
    1             2.001586   1.597971   1.071907   1.724748   2.000000
    2            -0.000793   0.201015   0.464046   0.137626   0.000000
    3            -0.000793   0.201015   0.464046   0.137626   0.000000
 
               ----- POPULATIONS IN EACH AO -----
                             MULLIKEN      LOWDIN
              1  O   1  S     1.99743     1.99578
              2  O   1  S     1.81131     1.64472
              3  O   1  X     1.07191     1.10232
              4  O   1  Y     2.00000     2.00000
              5  O   1  Z     1.51557     1.52884
              6  H   2  S     0.80189     0.86417
              7  H   3  S     0.80189     0.86417
 
          ----- MULLIKEN ATOMIC OVERLAP POPULATIONS -----
          (OFF-DIAGONAL ELEMENTS NEED TO BE MULTIPLIED BY 2)
 
             1           2           3
 
    1    7.8512354
    2    0.2724884   0.5790503
    3    0.2724884  -0.0496448   0.5790503
 
          TOTAL MULLIKEN AND LOWDIN ATOMIC POPULATIONS
       ATOM         MULL.POP.    CHARGE          LOW.POP.     CHARGE
    1 O             8.396212   -0.396212         8.271655   -0.271655
    2 H             0.801894    0.198106         0.864172    0.135828
    3 H             0.801894    0.198106         0.864172    0.135828
 
          -------------------------------
          BOND ORDER AND VALENCE ANALYSIS     BOND ORDER THRESHOLD=0.050
          -------------------------------
 
                   BOND                       BOND                       BOND
  ATOM PAIR DIST  ORDER      ATOM PAIR DIST  ORDER      ATOM PAIR DIST  ORDER
    1   2  0.934  0.945        1   3  0.934  0.945
 
                       TOTAL       BONDED        FREE
      ATOM            VALENCE     VALENCE     VALENCE
    1 O                 1.890       1.890       0.000
    2 H                 0.961       0.961       0.000
    3 H                 0.961       0.961       0.000
 
          ---------------------
          ELECTROSTATIC MOMENTS
          ---------------------
 
 POINT   1           X           Y           Z (BOHR)    CHARGE
                 0.000000    0.000000    0.115261        0.00 (A.U.)
         DX          DY          DZ         /D/  (DEBYE)
     0.000000    0.000000    1.727117    1.727117
 ...... END OF PROPERTY EVALUATION ......
 ON NODE 0, STEP CPU TIME =     0.01 TOTAL CPU TIME =        0.0 (    0.0 MIN)
 TOTAL WALL CLOCK TIME=        0.2 SECONDS, CPU UTILIZATION IS  18.18%
 100000 WORDS OF DYNAMIC MEMORY USED
 
 EXECUTION OF GAMESS TERMINATED NORMALLY Wed Sep 24 18:54:27 2003
 
DATA SERVER STATS: TOTAL DISTRIBUTED MEMORY USED (MEMDDI)=       0 MWORDS.
FIRST DATA SERVER'S MAXIMUM MEMORY=             0 WORDS, CPU=     0.0 SECONDS.
 
ddikick: all processes have ended gracefully.
----- accounting info -----
Wed Sep 24 18:54:30 GMT 2003
Files used on the master node compute-0-0 were:
-rw-rw-r--    1 uxgamesp uxgamesp     1620 Sep 24 18:54 /home/uxgamesp/.portals/abowen/gamess/h2o_rhf/h20_rhf/h20_rhf.dat
-rw-r--r--    1 uxgamesp uxgamesp      199 Sep 24 18:54 /home/uxgamesp/.portals/abowen/gamess/h2o_rhf/h20_rhf/h20_rhf.F05
-rw-rw-r--    1 uxgamesp uxgamesp   180012 Sep 24 18:54 /home/uxgamesp/.portals/abowen/gamess/h2o_rhf/h20_rhf/h20_rhf.F08
-rw-rw-r--    1 uxgamesp uxgamesp   180012 Sep 24 18:54 /home/uxgamesp/.portals/abowen/gamess/h2o_rhf/h20_rhf/h20_rhf.F08.001
-rw-rw-r--    1 uxgamesp uxgamesp   319400 Sep 24 18:54 /home/uxgamesp/.portals/abowen/gamess/h2o_rhf/h20_rhf/h20_rhf.F10
-rw-r--r--    1 uxgamesp uxgamesp      199 Sep 24 18:53 /home/uxgamesp/.portals/abowen/gamess/h2o_rhf/h20_rhf/h20_rhf.inp
-rw-rw-r--    1 uxgamesp uxgamesp    17899 Sep 24 18:54 /home/uxgamesp/.portals/abowen/gamess/h2o_rhf/h20_rhf/h20_rhf.log
0.066u 0.111s 0:03.39 5.0%    0+0k 0+0io 4567pf+0w
compute-0-0 compute-0-0
